 &FCI NORB=  18,NELEC=14,MS2=0,
  ORBSYM=1,1,1,1,1,1,1,1,1,1,1,1,1,1,1,1,1,1,
  ISYM=1,
 &END
 2.323747945954695    1    1    1    1
 -2.011594960508231e-11    2    1    1    1
 1.796110700521878    2    1    2    1
 2.325663803447264    2    2    1    1
 2.00903237569618e-11    2    2    2    1
 2.327583560973816    2    2    2    2
 -0.2051320762539989    3    1    1    1
 1.235291937134413e-12    3    1    2    1
 -0.2055159453204471    3    1    2    2
 0.04082268439389762    3    1    3    1
 1.317329931844386e-12    3    2    1    1
 -0.2201729359331281    3    2    2    1
 -3.613403220526681e-12    3    2    2    2
 3.394401016709108e-15    3    2    3    1
 0.04015570998721207    3    2    3    2
 0.8951672692594473    3    3    1    1
 -2.022787668360837e-15    3    3    2    1
 0.8949384362550112    3    3    2    2
 0.00943597160666583    3    3    3    1
 5.288922920477688e-14    3    3    3    2
 0.879111695417219    3    3    3    3
 -2.951873235607029e-12    4    1    1    1
 0.172116045297237    4    1    2    1
 8.996461856410512e-13    4    1    2    2
 2.821338009997273e-13    4    1    3    1
 -0.02547429576490408    4    1    3    2
 -1.433818805960811e-13    4    1    3    3
 0.02761069937450292    4    1    4    1
 0.1818428711914823    4    2    1    1
 9.566306284859961e-13    4    2    2    1
 0.1820781350849562    4    2    2    2
 -0.02493361076453711    4    2    3    1
 -2.819220019127774e-13    4    2    3    2
 0.02482838719175821    4    2    3    3
 -5.706011321882454e-15    4    2    4    1
 0.02800956407788972    4    2    4    2
 1.600610006103306e-12    4    3    1    1
 -0.1442774307107847    4    3    2    1
 -1.629024577780563e-12    4    3    2    2
 -5.162386310305938e-14    4    3    3    1
 0.008991121842511907    4    3    3    2
 -1.834180932775952e-14    4    3    3    3
 -0.003599435671627115    4    3    4    1
 -2.14633469188927e-14    4    3    4    2
 0.04062208665243554    4    3    4    3
 0.6711417910052826    4    4    1    1
 -6.028965010079894e-14    4    4    2    1
 0.6712933306173732    4    4    2    2
 -0.01424763679706483    4    4    3    1
 -7.542387360184986e-14    4    4    3    2
 0.5332084671757104    4    4    3    3
 -1.262874325062637e-14    4    4    4    1
 0.002629738401855295    4    4    4    2
 1.720152095508439e-14    4    4    4    3
 0.5427647819927737    4    4    4    4
 0.01372199052756876    5    1    5    1
 4.405818009147434e-15    5    2    5    1
 0.01287284111494417    5    2    5    2
 0.01858889114736222    5    3    5    1
 1.036080464341284e-13    5    3    5    2
 0.09878434622626181    5    3    5    3
 6.471749961326996e-14    5    4    5    1
 -0.01140293940593487    5    4    5    2
 3.138116013798717e-15    5    4    5    3
 0.04538788456580677    5    4    5    4
 0.7104961064116101    5    5    1    1
 -5.833169568032479e-15    5    5    2    1
 0.7104853995072438    5    5    2    2
 -0.0002967087689508589    5    5    3    1
 -1.455559117092819e-15    5    5    3    2
 0.653007538267054    5    5    3    3
 -4.911074133044359e-14    5    5    4    1
 0.008556520276556833    5    5    4    2
 -5.691165102251925e-15    5    5    4    3
 0.5069091479049034    5    5    4    4
 0.5868374629053922    5    5    5    5
 0.01372199052756879    6    1    6    1
 4.554158398258253e-15    6    2    6    1
 0.0128728411149442    6    2    6    2
 0.01858889114736225    6    3    6    1
 1.037556736604504e-13    6    3    6    2
 0.09878434622626189    6    3    6    3
 6.458789237078136e-14    6    4    6    1
 -0.01140293940593489    6    4    6    2
 2.71067796085104e-15    6    4    6    3
 0.04538788456580679    6    4    6    4
 0.02333393336695901    6    5    6    5
 0.7104961064116105    6    6    1    1
 -3.504016098614627e-15    6    6    2    1
 0.710485399507244    6    6    2    2
 -0.0002967087689508558    6    6    3    1
 -1.580966885459068e-15    6    6    3    2
 0.6530075382670545    6    6    3    3
 -4.909042087403152e-14    6    6    4    1
 0.00855652027655686    6    6    4    2
 -6.485399015269524e-15    6    6    4    3
 0.5069091479049038    6    6    4    4
 0.5401695961714745    6    6    5    5
 0.5868374629053928    6    6    6    6
 0.07321772553054436    7    1    1    1
 -2.751645638221464e-13    7    1    2    1
 0.07323075967898923    7    1    2    2
 -0.001120853347455355    7    1    3    1
 3.149300111041695e-15    7    1    3    2
 0.03515888195346756    7    1    3    3
 -1.711175034421306e-13    7    1    4    1
 0.01576672699367802    7    1    4    2
 -1.127844161949355e-14    7    1    4    3
 -0.006392088704604827    7    1    4    4
 0.009882981417629689    7    1    5    5
 0.009882981417629697    7    1    6    6
 0.01784192668373668    7    1    7    1
 -1.605408731598007e-13    7    2    1    1
 0.05292722082215576    7    2    2    1
 1.024344578793206e-12    7    2    2    2
 3.214641708345916e-15    7    2    3    1
 -0.00224081778848127    7    2    3    2
 1.995342192162781e-13    7    2    3    3
 0.01501228458292278    7    2    4    1
 1.736346809454821e-13    7    2    4    2
 0.001552630313706669    7    2    4    3
 -3.124420506214559e-14    7    2    4    4
 5.636295736531983e-14    7    2    5    5
 5.631889929757834e-14    7    2    6    6
 1.236661779693294e-14    7    2    7    1
 0.01626865483508687    7    2    7    2
 0.1095537299372632    7    3    1    1
 -1.604363898380862e-14    7    3    2    1
 0.1093867277416864    7    3    2    2
 0.009429265827747864    7    3    3    1
 5.376882022552508e-14    7    3    3    2
 0.1417640171043414    7    3    3    3
 -4.620268192251734e-14    7    3    4    1
 0.007811264370498682    7    3    4    2
 -3.04965654848908e-15    7    3    4    3
 0.01218291151547069    7    3    4    4
 0.05545643894172989    7    3    5    5
 0.05545643894172994    7    3    6    6
 0.01539156168646446    7    3    7    1
 8.701378270761589e-14    7    3    7    2
 0.05622877759217357    7    3    7    3
 -2.79193564445431e-12    7    4    1    1
 0.2489929135000088    7    4    2    1
 2.781850948276884e-12    7    4    2    2
 1.017249467053498e-13    7    4    3    1
 -0.01828993057784186    7    4    3    2
 -7.605903758749199e-15    7    4    3    3
 -0.004638659098774895    7    4    4    1
 -2.390943881452035e-14    7    4    4    2
 -0.07701760568350231    7    4    4    3
 -5.259032543418109e-14    7    4    4    4
 -4.728503454869691e-15    7    4    5    5
 -3.494492945615491e-15    7    4    6    6
 9.552398233591843e-14    7    4    7    1
 -0.01725355700718822    7    4    7    2
 -1.120527746018933e-14    7    4    7    3
 0.2149840856131633    7    4    7    4
 -0.005727822680892957    7    5    5    1
 -3.330807780327641e-14    7    5    5    2
 -0.01988639979477816    7    5    5    3
 1.246062987244916e-15    7    5    5    4
 0.02971307151291269    7    5    7    5
 -0.005727822680892963    7    6    6    1
 -3.337037992525079e-14    7    6    6    2
 -0.01988639979477816    7    6    6    3
 1.562858308692262e-15    7    6    6    4
 0.0297130715129127    7    6    7    6
 0.6993145894542867    7    7    1    1
 5.78216454304313e-14    7    7    2    1
 0.6993791282120018    7    7    2    2
 -0.009519600228434802    7    7    3    1
 -5.766354042293062e-14    7    7    3    2
 0.574799386596639    7    7    3    3
 -2.115496788719409e-14    7    7    4    1
 0.003631942062670348    7    7    4    2
 -2.241322026959936e-14    7    7    4    3
 0.5469996589532589    7    7    4    4
 0.514755160632466    7    7    5    5
 0.5147551606324662    7    7    6    6
 -0.002052470100478953    7    7    7    1
 -1.522790090901534e-14    7    7    7    2
 0.03475048463752241    7    7    7    3
 4.853220462689416e-14    7    7    7    4
 0.5652617550455181    7    7    7    7
 3.298767234613126e-14    8    1    5    1
 -0.002869981796471773    8    1    5    2
 2.151282922375841e-14    8    1    5    3
 0.002566741552080891    8    1    5    4
 -1.331091107942529e-13    8    1    6    1
 0.01158186904435084    8    1    6    2
 -8.680796887550638e-14    8    1    6    3
 -0.01035813696220672    8    1    6    4
 -7.268582305789242e-15    8    1    7    5
 2.932317868215846e-14    8    1    7    6
 0.01107217276044593    8    1    8    1
 -0.00302268992511306    8    2    5    1
 -3.296473765025422e-14    8    2    5    2
 -0.003840447060515873    8    2    5    3
 1.421026983596138e-14    8    2    5    4
 0.01219812575723507    8    2    6    1
 1.330474255643717e-13    8    2    6    2
 0.01549820106222908    8    2    6    3
 -5.736440773027417e-14    8    2    6    4
 0.001353467609753775    8    2    7    5
 -0.005461945658056001    8    2    7    6
 -2.523621524863761e-15    8    2    8    1
 0.0115420087855183    8    2    8    2
 1.328375098118975e-14    8    3    5    1
 -0.002369547158847775    8    3    5    2
 0.007663401850976549    8    3    5    4
 -5.360738873591835e-14    8    3    6    1
 0.00956235503720849    8    3    6    2
 -0.03092581171816473    8    3    6    4
 -3.539207423036397e-15    8    3    7    6
 0.008985103507181019    8    3    8    1
 5.03048987023025e-14    8    3    8    2
 0.02813874015266243    8    3    8    3
 0.003451583966041518    8    4    5    1
 1.91235723718072e-14    8    4    5    2
 0.01487481465005327    8    4    5    3
 2.187020643970554e-15    8    4    5    4
 -0.01392893625298196    8    4    6    1
 -7.718633013415631e-14    8    4    6    2
 -0.06002761256106201    8    4    6    3
 -8.7479573862279e-15    8    4    6    4
 -0.009676401918290656    8    4    7    5
 0.03904931382349618    8    4    7    6
 7.373709731668751e-14    8    4    8    1
 -0.01306329564107272    8    4    8    2
 2.341197377009547e-15    8    4    8    3
 0.07034741673978481    8    4    8    4
 6.196881129031069e-13    8    5    1    1
 -0.05534870651568521    8    5    2    1
 -6.192999460902191e-13    8    5    2    2
 -1.415998173740677e-14    8    5    3    1
 0.002529686079854344    8    5    3    2
 -0.0002179975184138858    8    5    4    1
 -1.389815372104542e-15    8    5    4    2
 0.01682261728884158    8    5    4    3
 8.057249000805279e-15    8    5    4    4
 -7.325711859202775e-15    8    5    7    1
 0.001301697893153164    8    5    7    2
 1.881250861913452e-15    8    5    7    3
 -0.03335460730769629    8    5    7    4
 -7.858785978197243e-15    8    5    7    7
 0.02117821568516751    8    5    8    5
 -2.500383608445116e-12    8    6    1    1
 0.223360814144167    8    6    2    1
 2.499591398705076e-12    8    6    2    2
 5.714194768547129e-14    8    6    3    1
 -0.01020859886157065    8    6    3    2
 -1.126519075326068e-15    8    6    3    3
 0.0008797333534892022    8    6    4    1
 5.613408260559572e-15    8    6    4    2
 -0.06788800913724255    8    6    4    3
 -3.221331642302431e-14    8    6    4    4
 -2.40701300018106e-15    8    6    5    5
 -1.71146583746288e-15    8    6    6    6
 2.955846919817567e-14    8    6    7    1
 -0.005253027929424927    8    6    7    2
 -7.566499697213794e-15    8    6    7    3
 0.1346031861032695    8    6    7    4
 3.202362776740661e-14    8    6    7    7
 -0.0290560274308545    8    6    8    5
 0.1312343263977716    8    6    8    6
 -8.540187040298928e-15    8    7    5    1
 0.001599861916260605    8    7    5    2
 1.75535342269338e-15    8    7    5    3
 -0.008921435179223744    8    7    5    4
 3.445771276307273e-14    8    7    6    1
 -0.006456274818869488    8    7    6    2
 -7.088888830748485e-15    8    7    6    3
 0.036002630421022    8    7    6    4
 -2.218764039186999e-15    8    7    7    5
 8.986096525031284e-15    8    7    7    6
 -0.0064202810915748    8    7    8    1
 -3.758452918142265e-14    8    7    8    2
 -0.02059463286370862    8    7    8    3
 4.578640776458362e-15    8    7    8    4
 0.03679360691757423    8    7    8    7
 0.6130409214469099    8    8    1    1
 1.437441374013422e-15    8    8    2    1
 0.6130898628679444    8    8    2    2
 -0.004138666126532411    8    8    3    1
 -2.329280268144305e-14    8    8    3    2
 0.5364755193028212    8    8    3    3
 -2.571311898279746e-14    8    8    4    1
 0.004546643362255223    8    8    4    2
 -3.881146034235046e-15    8    8    4    3
 0.4769548934464194    8    8    4    4
 0.4770148738353739    8    8    5    5
 -0.008481926203113216    8    8    6    5
 0.5091420395839416    8    8    6    6
 0.002690176802383291    8    8    7    1
 1.549960563770065e-14    8    8    7    2
 0.02582232974820095    8    8    7    3
 0.478223345241854    8    8    7    7
 1.202203372412249e-15    8    8    8    6
 0.4715700510024664    8    8    8    8
 -1.331701456259572e-13    9    1    5    1
 0.01158186904435082    9    1    5    2
 -8.683785299053946e-14    9    1    5    3
 -0.01035813696220671    9    1    5    4
 -3.299818391091629e-14    9    1    6    1
 0.002869981796471773    9    1    6    2
 -2.151870955712199e-14    9    1    6    3
 -0.002566741552080893    9    1    6    4
 2.934945925237593e-14    9    1    7    5
 7.271638653489525e-15    9    1    7    6
 0.01107217276044592    9    1    9    1
 0.01219812575723505    9    2    5    1
 1.329795468653477e-13    9    2    5    2
 0.01549820106222907    9    2    5    3
 -5.730610375420638e-14    9    2    5    4
 0.003022689925113059    9    2    6    1
 3.295336075334263e-14    9    2    6    2
 0.003840447060515876    9    2    6    3
 -1.420348848743095e-14    9    2    6    4
 -0.005461945658055998    9    2    7    5
 -0.001353467609753776    9    2    7    6
 -2.511284555677259e-15    9    2    9    1
 0.01154200878551829    9    2    9    2
 -5.361889170610309e-14    9    3    5    1
 0.009562355037208477    9    3    5    2
 -0.03092581171816472    9    3    5    4
 -1.328697208499761e-14    9    3    6    1
 0.002369547158847776    9    3    6    2
 -0.00766340185097656    9    3    6    4
 -3.529463342978085e-15    9    3    7    5
 0.00898510350718101    9    3    9    1
 5.034890388487692e-14    9    3    9    2
 0.02813874015266242    9    3    9    3
 -0.01392893625298194    9    4    5    1
 -7.712850336434315e-14    9    4    5    2
 -0.060027612561062    9    4    5    3
 -8.917948764868889e-15    9    4    5    4
 -0.00345158396604152    9    4    6    1
 -1.911475452588106e-14    9    4    6    2
 -0.01487481465005329    9    4    6    3
 -2.195370440949284e-15    9    4    6    4
 0.03904931382349618    9    4    7    5
 0.009676401918290674    9    4    7    6
 7.370235802242548e-14    9    4    9    1
 -0.01306329564107271    9    4    9    2
 2.066649476100234e-15    9    4    9    3
 0.07034741673978481    9    4    9    4
 -2.501188957008742e-12    9    5    1    1
 0.2233608141441668    9    5    2    1
 2.498799350224056e-12    9    5    2    2
 5.716022574837675e-14    9    5    3    1
 -0.01020859886157067    9    5    3    2
 -1.545261135507751e-15    9    5    3    3
 0.0008797333534892215    9    5    4    1
 5.605338724299613e-15    9    5    4    2
 -0.06788800913724251    9    5    4    3
 -3.262450804272784e-14    9    5    4    4
 -3.380219812201104e-15    9    5    5    5
 -1.784724315270648e-15    9    5    6    6
 2.955900348120809e-14    9    5    7    1
 -0.005253027929424916    9    5    7    2
 -7.594113172739703e-15    9    5    7    3
 0.1346031861032694    9    5    7    4
 3.159242717057467e-14    9    5    7    7
 -0.0290560274308545    9    5    8    5
 0.1032780353648912    9    5    8    6
 0.1312343263977715    9    5    9    5
 -6.197252620741076e-13    9    6    1    1
 0.05534870651568527    9    6    2    1
 6.192662951652906e-13    9    6    2    2
 1.416474310436059e-14    9    6    3    1
 -0.002529686079854347    9    6    3    2
 0.0002179975184138879    9    6    4    1
 1.388813464855071e-15    9    6    4    2
 -0.0168226172888416    9    6    4    3
 -8.025842928436384e-15    9    6    4    4
 7.325661429054016e-15    9    6    7    1
 -0.001301697893153165    9    6    7    2
 -1.885979251631798e-15    9    6    7    3
 0.03335460730769634    9    6    7    4
 7.88140195750481e-15    9    6    7    7
 0.006778075347712854    9    6    8    5
 0.02905602743085455    9    6    8    6
 0.02905602743085454    9    6    9    5
 0.02117821568516753    9    6    9    6
 3.447908503386432e-14    9    7    5    1
 -0.006456274818869481    9    7    5    2
 -7.099105071390059e-15    9    7    5    3
 0.03600263042102199    9    7    5    4
 8.542676796268727e-15    9    7    6    1
 -0.001599861916260607    9    7    6    2
 -1.762715933793623e-15    9    7    6    3
 0.008921435179223757    9    7    6    4
 8.931388994633826e-15    9    7    7    5
 2.219550218853566e-15    9    7    7    6
 -0.006420281091574794    9    7    9    1
 -3.76064479516481e-14    9    7    9    2
 -0.02059463286370861    9    7    9    3
 4.844952956287011e-15    9    7    9    4
 0.03679360691757422    9    7    9    7
 -0.008481926203113445    9    8    5    5
 0.01606358287428379    9    8    6    5
 0.008481926203113431    9    8    6    6
 0.01785219859063553    9    8    9    8
 0.6130409214469097    9    9    1    1
 2.303680335828381e-15    9    9    2    1
 0.6130898628679442    9    9    2    2
 -0.004138666126532417    9    9    3    1
 -2.334746291476452e-14    9    9    3    2
 0.5364755193028211    9    9    3    3
 -2.57208397561154e-14    9    9    4    1
 0.004546643362255221    9    9    4    2
 -4.242970598466099e-15    9    9    4    3
 0.4769548934464191    9    9    4    4
 0.5091420395839412    9    9    5    5
 0.008481926203113666    9    9    6    5
 0.4770148738353738    9    9    6    6
 0.002690176802383287    9    9    7    1
 1.544873035473485e-14    9    9    7    2
 0.02582232974820099    9    9    7    3
 1.468694074977035e-15    9    9    7    4
 0.4782233452418539    9    9    7    7
 1.625461626279406e-15    9    9    8    6
 0.4358656538211953    9    9    8    8
 1.577024516414185e-15    9    9    9    5
 0.4715700510024661    9    9    9    9
 1.771366055650458e-12   10    1    1    1
 -0.1052678752684176   10    1    2    1
 -5.841835381357739e-13   10    1    2    2
 -1.95552155746571e-13   10    1    3    1
 0.01768044977561104   10    1    3    2
 4.092296942044965e-14   10    1    3    3
 -0.01513248031002917   10    1    4    1
 1.697050563213233e-15   10    1    4    2
 0.002783261683432038   10    1    4    3
 2.070083203237374e-14   10    1    4    4
 1.452907018618248e-14   10    1    5    5
 1.451283730786676e-14   10    1    6    6
 6.389314066037394e-14   10    1    7    1
 -0.005621679960047888   10    1    7    2
 7.546214676322537e-15   10    1    7    3
 -0.00219680428543932   10    1    7    4
 1.800078679143646e-14   10    1    7    7
 0.0004240568375797537   10    1    8    5
 -0.001711289864712062   10    1    8    6
 1.085730632904368e-14   10    1    8    8
 -0.001711289864712061   10    1    9    5
 -0.0004240568375797539   10    1    9    6
 1.085994858713005e-14   10    1    9    9
 0.009157170906026392   10    1   10    1
 -0.1062550809035406   10    2    1    1
 -5.928819061606534e-13   10    2    2    1
 -0.1064190316782543   10    2    2    2
 0.0176115829814114   10    2    3    1
 1.992942159777897e-13   10    2    3    2
 -0.006469641735374581   10    2    3    3
 1.579575490377139e-15   10    2    4    1
 -0.01521025198857028   10    2    4    2
 1.623939667434837e-14   10    2    4    3
 -0.003819859633403287   10    2    4    4
 -0.002390413503814367   10    2    5    5
 -0.002390413503814377   10    2    6    6
 -0.005725737508440359   10    2    7    1
 -6.338041032278272e-14   10    2    7    2
 -0.0008789304199415973   10    2    7    3
 -1.490733354998494e-14   10    2    7    4
 -0.003402298851110041   10    2    7    7
 2.62953971763846e-15   10    2    8    5
 -1.061403754208204e-14   10    2    8    6
 -0.001928020798636033   10    2    8    8
 -1.060290972456452e-14   10    2    9    5
 -2.627620673791929e-15   10    2    9    6
 -0.001928020798636052   10    2    9    9
 0.009183181235145978   10    2   10    2
 -1.139387410447553e-12   10    3    1    1
 0.1038069605088677   10    3    2    1
 1.184329029305814e-12   10    3    2    2
 2.85209245652541e-14   10    3    3    1
 -0.004962290045404703   10    3    3    2
 1.811791790120134e-14   10    3    3    3
 0.004189073575550852   10    3    4    1
 2.478311680861897e-14   10    3    4    2
 -0.02481243140594253   10    3    4    3
 -3.928458339603625e-15   10    3    4    4
 4.920893714245344e-15   10    3    5    5
 5.35828908351009e-15   10    3    6    6
 -7.24938872586363e-15   10    3    7    1
 0.001788234347718305   10    3    7    2
 5.246410618522959e-15   10    3    7    3
 0.03509624808541821   10    3    7    4
 1.694050449499367e-14   10    3    7    7
 -0.01002929975764021   10    3    8    5
 0.04047344012506559   10    3    8    6
 4.081067174238148e-15   10    3    8    8
 0.04047344012506556   10    3    9    5
 0.01002929975764022   10    3    9    6
 4.210940518315214e-15   10    3    9    9
 -0.002143953918000505   10    3   10    1
 -1.241791826672555e-14   10    3   10    2
 0.0186529357152085   10    3   10    3
 -0.1399843081996834   10    4    1    1
 7.648191213570372e-15   10    4    2    1
 -0.1400230670631405   10    4    2    2
 0.00386771370518978   10    4    3    1
 2.073731685071344e-14   10    4    3    2
 -0.1005203070801669   10    4    3    3
 2.239201551992292e-14   10    4    4    1
 -0.003951668041588144   10    4    4    2
 2.292202385520561e-15   10    4    4    3
 -0.05607659609581726   10    4    4    4
 -0.07989190448659524   10    4    5    5
 -0.07989190448659525   10    4    6    6
 -0.002040077698834141   10    4    7    1
 -1.225562360045424e-14   10    4    7    2
 -0.01375213886351395   10    4    7    3
 -5.11468338920901e-15   10    4    7    4
 -0.0550244478055598   10    4    7    7
 -0.05844224577312586   10    4    8    8
 -0.05844224577312602   10    4    9    9
 -1.016705583795415e-14   10    4   10    1
 0.001933013517150743   10    4   10    2
 1.250319410499079e-15   10    4   10    3
 0.03454465557803007   10    4   10    4
 -3.775374109948471e-14   10    5    5    1
 0.006608829393405415   10    5    5    2
 -6.297117163256778e-15   10    5    5    3
 -0.01956567072385356   10    5    5    4
 -0.001463338744055313   10    5    8    1
 -8.052357762069472e-15   10    5    8    2
 -0.004148434204201213   10    5    8    3
 -1.385237187505525e-15   10    5    8    4
 0.002702762157786244   10    5    8    7
 0.005905332821974271   10    5    9    1
 3.247202450960786e-14   10    5    9    2
 0.01674108935158773   10    5    9    3
 5.657422618631012e-15   10    5    9    4
 -0.01090705084192169   10    5    9    7
 0.01271470433392049   10    5   10    5
 -3.767786499902038e-14   10    6    6    1
 0.006608829393405426   10    6    6    2
 -6.048733137151816e-15   10    6    6    3
 -0.01956567072385359   10    6    6    4
 0.005905332821974276   10    6    8    1
 3.250435313135777e-14   10    6    8    2
 0.01674108935158773   10    6    8    3
 5.572155878767396e-15   10    6    8    4
 -0.01090705084192169   10    6    8    7
 0.001463338744055313   10    6    9    1
 8.047811467311946e-15   10    6    9    2
 0.004148434204201218   10    6    9    3
 1.398068288141713e-15   10    6    9    4
 -0.002702762157786247   10    6    9    7
 0.01271470433392054   10    6   10    6
 2.843298119046762e-13   10    7    1    1
 -0.02393925178208399   10    7    2    1
 -2.515668823091393e-13   10    7    2    2
 -1.747730696054353e-14   10    7    3    1
 0.003212554309116479   10    7    3    2
 1.560007664691895e-14   10    7    3    3
 -0.0003242388790506402   10    7    4    1
 -1.195348844119848e-15   10    7    4    2
 0.0007261783403759933   10    7    4    3
 7.64528107745613e-15   10    7    5    5
 7.592826591109989e-15   10    7    6    6
 -8.773052203075824e-15   10    7    7    1
 0.001791045791551851   10    7    7    2
 6.037271231976801e-15   10    7    7    3
 0.01102562731795902   10    7    7    4
 7.564671333766975e-15   10    7    7    7
 4.323374714883286e-05   10    7    8    5
 -0.0001744706528765912   10    7    8    6
 3.668866483606052e-15   10    7    8    8
 -0.0001744706528765962   10    7    9    5
 -4.323374714883204e-05   10    7    9    6
 3.725305798021642e-15   10    7    9    9
 0.0006406325791312501   10    7   10    1
 3.524679486476515e-15   10    7   10    2
 -0.004947212782182285   10    7   10    3
 -1.07576092392528e-14   10    7   10    4
 0.02194458996079733   10    7   10    7
 -0.001723944911682387   10    8    5    1
 -9.609290749806859e-15   10    8    5    2
 -0.007065770852875732   10    8    5    3
 0.00695701423309594   10    8    6    1
 3.878585295808222e-14   10    8    6    2
 0.02851405985083318   10    8    6    3
 1.492255421507933e-15   10    8    6    4
 0.002026395716556233   10    8    7    5
 -0.008177560516251374   10    8    7    6
 -3.590872551406874e-14   10    8    8    1
 0.006399887269557298   10    8    8    2
 -0.01942738219667609   10    8    8    4
 -2.517898254999544e-15   10    8    8    7
 -3.709015367274771e-15   10    8   10    6
 0.01641507223746523   10    8   10    8
 0.00695701423309593   10    9    5    1
 3.875739367879374e-14   10    9    5    2
 0.02851405985083315   10    9    5    3
 1.560494338110521e-15   10    9    5    4
 0.001723944911682387   10    9    6    1
 9.605190082602885e-15   10    9    6    2
 0.007065770852875737   10    9    6    3
 -0.008177560516251403   10    9    7    5
 -0.00202639571655624   10    9    7    6
 -3.589116984698388e-14   10    9    9    1
 0.006399887269557296   10    9    9    2
 -0.01942738219667603   10    9    9    4
 -2.560438602408947e-15   10    9    9    7
 -3.841314427480666e-15   10    9   10    5
 0.01641507223746465   10    9   10    9
 0.3973323162603384   10   10    1    1
 -3.183478008732625e-14   10   10    2    1
 0.3973660084776967   10   10    2    2
 -0.003237196882018992   10   10    3    1
 -1.535280699969011e-14   10   10    3    2
 0.3595153745182265   10   10    3    3
 -8.5499275078448e-15   10   10    4    1
 0.001789270565417556   10   10    4    2
 1.437273482070219e-14   10   10    4    3
 0.3650547108951344   10   10    4    4
 0.3447827042148129   10   10    5    5
 0.3447827042148117   10   10    6    6
 -5.854032611570115e-05   10   10    7    1
 2.618073337494231e-15   10   10    7    2
 0.00580935986086217   10   10    7    3
 -4.979389887815609e-14   10   10    7    4
 0.3687160929915918   10   10    7    7
 7.249947607101072e-15   10   10    8    5
 -2.895939866651982e-14   10   10    8    6
 0.3373185836544706   10   10    8    8
 -2.981837066049219e-14   10   10    9    5
 -7.32670363972726e-15   10   10    9    6
 0.337318583654475   10   10    9    9
 4.906280031514876e-15   10   10   10    1
 -0.001315791368605616   10   10   10    2
 -3.310347185343568e-15   10   10   10    3
 0.002278736196906834   10   10   10    4
 -3.019961088134418e-14   10   10   10    7
 0.351738067767462   10   10   10   10
 0.01882502567714128   11    1    1    1
 -2.015507025279099e-13   11    1    2    1
 0.01891445139351082   11    1    2    2
 -0.009856842101400701   11    1    3    1
 1.405549198917641e-15   11    1    3    2
 -0.0168268456463552   11    1    3    3
 8.029331452894151e-15   11    1    4    1
 -0.001242185007085341   11    1    4    2
 1.727187666871862e-14   11    1    4    3
 0.006039934925307366   11    1    4    4
 -0.003521992414426951   11    1    5    5
 -0.003521992414426952   11    1    6    6
 -0.008321304808726886   11    1    7    1
 -7.166493657306642e-15   11    1    7    2
 -0.008869734031326938   11    1    7    3
 -6.274661165411418e-14   11    1    7    4
 0.00286326558646765   11    1    7    7
 6.558101812626566e-15   11    1    8    5
 -2.646126439859608e-14   11    1    8    6
 0.0001671279020870542   11    1    8    8
 -2.64734892985242e-14   11    1    9    5
 -6.559438257558069e-15   11    1    9    6
 0.0001671279020870546   11    1    9    9
 2.042356475478232e-14   11    1   10    1
 -0.001707753030063538   11    1   10    2
 -4.112614967325124e-15   11    1   10    3
 -0.0003032437862750301   11    1   10    4
 9.035376792729591e-15   11    1   10    7
 0.0007155929288803922   11    1   10   10
 0.006619903703444022   11    1   11    1
 -2.67000032319772e-13   11    2    1    1
 0.03051480459017698   11    2    2    1
 4.165464338174501e-13   11    2    2    2
 1.37362306339633e-15   11    2    3    1
 -0.009220995614254488   11    2    3    2
 -9.653116288549477e-14   11    2    3    3
 -0.0007930180142833853   11    2    4    1
 -1.49106213306742e-14   11    2    4    2
 -0.00272915532580192   11    2    4    3
 3.010511004640734e-14   11    2    4    4
 -2.065178139338171e-14   11    2    5    5
 -2.060894551061502e-14   11    2    6    6
 -7.169668938823994e-15   11    2    7    1
 -0.007385495613482497   11    2    7    2
 -5.034627040097018e-14   11    2    7    3
 0.01121388016833292   11    2    7    4
 1.781400253635432e-14   11    2    7    7
 -0.001150592744116513   11    2    8    5
 0.004643240072853472   11    2    8    6
 0.004643240072853473   11    2    9    5
 0.001150592744116516   11    2    9    6
 -0.001770974141497954   11    2   10    1
 -1.83306062392254e-14   11    2   10    2
 0.0004101410512174546   11    2   10    3
 -0.001702918278330871   11    2   10    7
 1.887611229640373e-15   11    2   10   10
 2.401754963330507e-15   11    2   11    1
 0.006066302176173417   11    2   11    2
 -0.1077080671557376   11    3    1    1
 2.78259742439312e-14   11    3    2    1
 -0.1076323230812498   11    3    2    2
 -0.00265593974821439   11    3    3    1
 -1.627578198228287e-14   11    3    3    2
 -0.08844978742590814   11    3    3    3
 4.188690154817153e-14   11    3    4    1
 -0.007056368910108478   11    3    4    2
 -1.937375843536528e-15   11    3    4    3